####################################################################### 
# 
# This file contains crystal structure data downloaded from the 
# Cambridge Structural Database (CSD) hosted by the Cambridge 
# Crystallographic Data Centre (CCDC) in cooperation with FIZ Karlsruhe.
# 
# Please note that these data are only for research purposes or private use.
# For detailed information please see under Terms & Conditions.
# Full information about CCDC and FIZ Karlsruhe data access policies and 
# citation guidelines are available at http://www.ccdc.cam.ac.uk/access/V1
# 
# Audit and citation data items may have been added by FIZ Karlsruhe. 
# Please retain this information to preserve the provenance of 
# this file and to allow appropriate attribution of the data. 
# 
#######################################################################

data_264725
_database_code_depnum_ccdc_archive 'CCDC 2029282'
loop_
_citation_id
_citation_doi
_citation_year
1 10.1021/acsenergylett.8b00672 2018
_audit_update_record             
;
2020-09-07 deposited with the CCDC.	2024-11-09 downloaded from the CCDC.
;
_database_code_ICSD              264725
_audit_creation_date             2019-02-01
_chemical_name_systematic        'Cesium lead triiodide'
_chemical_formula_structural     'Cs Pb I3'
_chemical_formula_sum            'Cs1 I3 Pb1'
_chemical_name_structure_type    Perovskite-GdFeO3
_exptl_crystal_density_diffrn    5.05
_cell_measurement_temperature    293.
_cell_length_a                   8.8561(4)
_cell_length_b                   8.5766(3)
_cell_length_c                   12.4722(6)
_cell_angle_alpha                90.
_cell_angle_beta                 90.
_cell_angle_gamma                90.
_cell_volume                     947.33
_cell_formula_units_Z            4
_symmetry_space_group_name_H-M   'P n a m'
_symmetry_Int_Tables_number      62
_refine_ls_R_factor_all          0.0491
loop_
_symmetry_equiv_pos_site_id
_symmetry_equiv_pos_as_xyz
1 'x+1/2, -y+1/2, z'
2 'x, y, -z+1/2'
3 '-x+1/2, y+1/2, z+1/2'
4 '-x, -y, -z'
5 '-x+1/2, y+1/2, -z'
6 '-x, -y, z+1/2'
7 'x+1/2, -y+1/2, -z+1/2'
8 'x, y, z'
loop_
_atom_type_symbol
_atom_type_oxidation_number
Cs1+ 1
Pb2+ 2
I1- -1
loop_
_atom_site_label
_atom_site_type_symbol
_atom_site_symmetry_multiplicity
_atom_site_Wyckoff_symbol
_atom_site_fract_x
_atom_site_fract_y
_atom_site_fract_z
_atom_site_B_iso_or_equiv
_atom_site_occupancy
_atom_site_attached_hydrogens
Cs1 Cs1+ 4 c 0.45995 0.50509 0.25 0.0394(3) 1. 0
Pb1 Pb2+ 4 b 0 0.5 0 0.0327(3) 1. 0
I1 I1- 4 c 0.00113 0.56202 0.25 0.0385(4) 1. 0
I2 I1- 8 d 0.30538 0.69731 -0.03577 0.0368(4) 1. 0
#End of TTdata_264725-ICSD
